                               Psi4 1.2.1 release

  ==> Input File <==

--------------------------------------------------------------------------
#! You can write anything you want; this is a test

molecule butanol {
C        0.008779      0.012379      1.105042
H        1.028245     -0.002162      1.503483
H       -0.516298      0.887528      1.500876
O       -0.665836     -1.157491      1.546933
H       -0.658019     -1.141072      2.519152
C        0.020566      0.028383     -0.416926
H       -1.011109     -0.010212     -0.788582
H        0.505740     -0.883948     -0.786022
C        0.732723      1.263125     -0.961818
H        1.765587      1.289355     -0.595489
H        0.236272      2.170272     -0.598070
C        0.742357      1.275395     -2.482041
H        1.260737      0.396365     -2.878202
H        1.257212      2.168129     -2.850647
H       -0.277105      1.282194     -2.880797
}

set basis cc-pVDZ
energy('scf')
--------------------------------------------------------------------------

    Molecular point group: c1

    Geometry (in Angstrom), charge = 0, multiplicity = 1:

       Center              X                  Y                   Z               Mass
    ------------   -----------------  -----------------  -----------------  -----------------
         C           -0.140026222223    -0.239291597685     1.297094855091    12.000000000000
         H            0.879439777777    -0.253832597685     1.695535855091     1.007825032070
         H           -0.665103222223     0.635857402315     1.692928855091     1.007825032070
         O           -0.814641222223    -1.409161597685     1.738985855091    15.994914619560
         H           -0.806824222223    -1.392742597685     2.711204855091     1.007825032070
         C           -0.128239222223    -0.223287597685    -0.224873144909    12.000000000000
         H           -1.159914222223    -0.261882597685    -0.596529144909     1.007825032070
         H            0.356934777777    -1.135618597685    -0.593969144909     1.007825032070
         C            0.583917777777     1.011454402315    -0.769765144909    12.000000000000
         H            1.616781777777     1.037684402315    -0.403436144909     1.007825032070
         H            0.087466777777     1.918601402315    -0.406017144909     1.007825032070
         C            0.593551777777     1.023724402315    -2.289988144909    12.000000000000
         H            1.111931777777     0.144694402315    -2.686149144909     1.007825032070
         H            1.108406777777     1.916458402315    -2.658594144909     1.007825032070
         H           -0.425910222223     1.030523402315    -2.688744144909     1.007825032070

  Charge       = 0
  Multiplicity = 1
  Basis Set: CC-PVDZ
    Blend: CC-PVDZ
  Basis Set: (CC-PVDZ AUX)
    Blend: CC-PVDZ-JKFIT

    Orbital Energies [Eh]
    ---------------------

    Doubly Occupied:

       1A    -20.545398     2A    -11.272079     3A    -11.224178
       4A    -11.218797     5A    -11.218449     6A     -1.347104
       7A     -1.071648     8A     -0.971468     9A     -0.849756
      10A     -0.793362    11A     -0.676754    12A     -0.657387
      13A     -0.602077    14A     -0.589095    15A     -0.559974
      16A     -0.518312    17A     -0.506412    18A     -0.474363
      19A     -0.468697    20A     -0.459583    21A     -0.433083

  @DF-RHF Final Energy:  -232.16557983472831

   => Energetics <=

    Nuclear Repulsion Energy =            185.2783607675311544
    One-Electron Energy =                -681.9719166814192022
    Two-Electron Energy =                 264.5279760791597710
    Total Energy =                       -232.1655798347283053

  Dipole Moment: [D]
     X:     0.6989      Y:     1.2161      Z:     0.9373     Total:     1.6870

*** Psi4 exiting successfully. Buy a developer a beer!
