                               Psi4 1.2.1 release

  ==> Input File <==

--------------------------------------------------------------------------
#! You can write anything you want; this is a test

molecule decanol {
C       -0.070772      0.027709      1.193294
H        0.933172      0.025891      1.629639
H       -0.608453      0.916312      1.539038
O       -0.764251     -1.125470      1.649797
H       -0.792487     -1.075534      2.620492
C       -0.001819     -0.009064     -0.327784
H       -1.019134     -0.055225     -0.735759
H        0.489500     -0.938936     -0.636028
C        0.737522      1.206568     -0.884615
H        1.771989      1.211395     -0.520174
H        0.263380      2.118090     -0.499545
C        0.731035      1.278547     -2.415332
H        1.143218      2.252568     -2.700856
H       -0.302753      1.252248     -2.780301
C        1.543857      0.163086     -3.078261
H        2.577754      0.188187     -2.713558
H        1.129661     -0.809659     -2.790379
C        1.536248      0.231201     -4.610184
H        1.985093     -0.696398     -4.982746
H        0.501537      0.251070     -4.972890
C        2.307009      1.429892     -5.170031
H        3.341798      1.408344     -4.807592
H        1.860699      2.359146     -4.799323
C        2.300207      1.494510     -6.701129
H        2.742062      2.452492     -7.002913
H        1.265493      1.496577     -7.065021
C        3.080164      0.358143     -7.363626
H        4.099736      0.322242     -6.963008
H        2.609277     -0.606179     -7.146187
C        3.143949      0.536546     -8.873083
H        3.702074     -0.287402     -9.328687
H        3.645680      1.472978     -9.137088
H        2.139909      0.549202     -9.309091
}

set basis cc-pVDZ
energy('scf')
--------------------------------------------------------------------------

    Molecular point group: c1

    Geometry (in Angstrom), charge = 0, multiplicity = 1:

       Center              X                  Y                   Z               Mass
    ------------   -----------------  -----------------  -----------------  -----------------
         C           -1.368171372860    -0.456078896703     4.456507497827    12.000000000000
         H           -0.364227372860    -0.457896896703     4.892852497827     1.007825032070
         H           -1.905852372860     0.432524103297     4.802251497827     1.007825032070
         O           -2.061650372860    -1.609257896703     4.913010497827    15.994914619560
         H           -2.089886372860    -1.559321896703     5.883705497827     1.007825032070
         C           -1.299218372860    -0.492851896703     2.935429497827    12.000000000000
         H           -2.316533372860    -0.539012896703     2.527454497827     1.007825032070
         H           -0.807899372860    -1.422723896703     2.627185497827     1.007825032070
         C           -0.559877372860     0.722780103297     2.378598497827    12.000000000000
         H            0.474589627140     0.727607103297     2.743039497827     1.007825032070
         H           -1.034019372860     1.634302103297     2.763668497827     1.007825032070
         C           -0.566364372860     0.794759103297     0.847881497827    12.000000000000
         H           -0.154181372860     1.768780103297     0.562357497827     1.007825032070
         H           -1.600152372860     0.768460103297     0.482912497827     1.007825032070
         C            0.246457627140    -0.320701896703     0.184952497827    12.000000000000
         H            1.280354627140    -0.295600896703     0.549655497827     1.007825032070
         H           -0.167738372860    -1.293446896703     0.472834497827     1.007825032070
         C            0.238848627140    -0.252586896703    -1.346970502173    12.000000000000
         H            0.687693627140    -1.180185896703    -1.719532502173     1.007825032070
         H           -0.795862372860    -0.232717896703    -1.709676502173     1.007825032070
         C            1.009609627140     0.946104103297    -1.906817502173    12.000000000000
         H            2.044398627140     0.924556103297    -1.544378502173     1.007825032070
         H            0.563299627140     1.875358103297    -1.536109502173     1.007825032070
         C            1.002807627140     1.010722103297    -3.437915502173    12.000000000000
         H            1.444662627140     1.968704103297    -3.739699502173     1.007825032070
         H           -0.031906372860     1.012789103297    -3.801807502173     1.007825032070
         C            1.782764627140    -0.125644896703    -4.100412502173    12.000000000000
         H            2.802336627140    -0.161545896703    -3.699794502173     1.007825032070
         H            1.311877627140    -1.089966896703    -3.882973502173     1.007825032070
         C            1.846549627140     0.052758103297    -5.609869502173    12.000000000000
         H            2.404674627140    -0.771189896703    -6.065473502173     1.007825032070
         H            2.348280627140     0.989190103297    -5.873874502173     1.007825032070
         H            0.842509627140     0.065414103297    -6.045877502173     1.007825032070

  Charge       = 0
  Multiplicity = 1
  Basis Set: CC-PVDZ
    Blend: CC-PVDZ
  Basis Set: (CC-PVDZ AUX)
    Blend: CC-PVDZ-JKFIT

    Orbital Energies [Eh]
    ---------------------

    Doubly Occupied:

       1A    -20.544924     2A    -11.271443     3A    -11.221630
       4A    -11.218516     5A    -11.217649     6A    -11.217329
       7A    -11.217062     8A    -11.216774     9A    -11.216425
      10A    -11.215826    11A    -11.214610    12A     -1.346531
      13A     -1.096640    14A     -1.074172    15A     -1.036298
      16A     -0.988006    17A     -0.938715    18A     -0.871717
      19A     -0.837715    20A     -0.807577    21A     -0.779569
      22A     -0.761436    23A     -0.676461    24A     -0.653016
      25A     -0.631758    26A     -0.621751    27A     -0.618264
      28A     -0.593906    29A     -0.577695    30A     -0.570125
      31A     -0.557145    32A     -0.537455    33A     -0.532267
      34A     -0.520767    35A     -0.498108    36A     -0.491891
      37A     -0.483412    38A     -0.472722    39A     -0.462896
      40A     -0.461339    41A     -0.456784    42A     -0.449645
      43A     -0.434637    44A     -0.430172    45A     -0.427457

  @DF-RHF Final Energy:  -466.38362414000858

   => Energetics <=

    Nuclear Repulsion Energy =            613.7597128077852631
    One-Electron Energy =               -1849.3460979523092647
    Two-Electron Energy =                 769.2027610045154233
    Total Energy =                       -466.3836241400085783

  Dipole Moment: [D]
     X:     0.6677      Y:     1.1813      Z:     0.8889     Total:     1.6222

*** Psi4 exiting successfully. Buy a developer a beer!
