                               Psi4 1.2.1 release

  ==> Input File <==

--------------------------------------------------------------------------
#! You can write anything you want; this is a test

molecule heptanol {
C       -0.042903     -0.011858      1.163493
H        0.964619     -0.030017      1.591130
H       -0.570938      0.873428      1.531869
O       -0.741221     -1.168990      1.602271
H       -0.760945     -1.138726      2.573987
C        0.013017     -0.017999     -0.358544
H       -1.008000     -0.048323     -0.758684
H        0.494751     -0.944925     -0.689965
C        0.756792      1.203281     -0.896778
H        1.794161      1.193195     -0.540793
H        0.292599      2.110324     -0.489668
C        0.738557      1.305828     -2.425528
H        1.158060      2.281265     -2.696424
H       -0.298320      1.296182     -2.782528
C        1.535811      0.196924     -3.117562
H        2.571830      0.205028     -2.757989
H        1.114946     -0.778932     -2.851041
C        1.521811      0.305088     -4.644853
H        1.998926     -0.591190     -5.059256
H        0.488124      0.310695     -5.009681
C        2.254051      1.527596     -5.176352
H        3.280260      1.566911     -4.797733
H        1.745254      2.454486     -4.896638
H        2.297878      1.492351     -6.269729
}

set basis cc-pVDZ
energy('scf')
--------------------------------------------------------------------------

    Molecular point group: c1

    Geometry (in Angstrom), charge = 0, multiplicity = 1:

       Center              X                  Y                   Z               Mass
    ------------   -----------------  -----------------  -----------------  -----------------
         C           -0.776237210629    -0.405763887837     2.834295135506    12.000000000000
         H            0.231284789371    -0.423922887837     3.261932135506     1.007825032070
         H           -1.304272210629     0.479522112163     3.202671135506     1.007825032070
         O           -1.474555210629    -1.562895887837     3.273073135506    15.994914619560
         H           -1.494279210629    -1.532631887837     4.244789135506     1.007825032070
         C           -0.720317210629    -0.411904887837     1.312258135506    12.000000000000
         H           -1.741334210629    -0.442228887837     0.912118135506     1.007825032070
         H           -0.238583210629    -1.338830887837     0.980837135506     1.007825032070
         C            0.023457789371     0.809375112163     0.774024135506    12.000000000000
         H            1.060826789371     0.799289112163     1.130009135506     1.007825032070
         H           -0.440735210629     1.716418112163     1.181134135506     1.007825032070
         C            0.005222789371     0.911922112163    -0.754725864494    12.000000000000
         H            0.424725789371     1.887359112163    -1.025621864494     1.007825032070
         H           -1.031654210629     0.902276112163    -1.111725864494     1.007825032070
         C            0.802476789371    -0.196981887837    -1.446759864494    12.000000000000
         H            1.838495789371    -0.188877887837    -1.087186864494     1.007825032070
         H            0.381611789371    -1.172837887837    -1.180238864494     1.007825032070
         C            0.788476789371    -0.088817887837    -2.974050864494    12.000000000000
         H            1.265591789371    -0.985095887837    -3.388453864494     1.007825032070
         H           -0.245210210629    -0.083210887837    -3.338878864494     1.007825032070
         C            1.520716789371     1.133690112163    -3.505549864494    12.000000000000
         H            2.546925789371     1.173005112163    -3.126930864494     1.007825032070
         H            1.011919789371     2.060580112163    -3.225835864494     1.007825032070
         H            1.564543789371     1.098445112163    -4.598926864494     1.007825032070

  Charge       = 0
  Multiplicity = 1
  Basis Set: CC-PVDZ
    Blend: CC-PVDZ
  Basis Set: (CC-PVDZ AUX)
    Blend: CC-PVDZ-JKFIT

    Orbital Energies [Eh]
    ---------------------

    Doubly Occupied:

       1A    -20.545155     2A    -11.271739     3A    -11.222177
       4A    -11.219347     5A    -11.219005     6A    -11.217679
       7A    -11.217285     8A    -11.215107     9A     -1.346757
      10A     -1.091475    11A     -1.048114    12A     -0.981599
      13A     -0.910491    14A     -0.841729    15A     -0.799290
      16A     -0.766587    17A     -0.676786    18A     -0.652765
      19A     -0.627299    20A     -0.613276    21A     -0.595925
      22A     -0.569282    23A     -0.557499    24A     -0.541977
      25A     -0.513806    26A     -0.504008    27A     -0.488464
      28A     -0.472720    29A     -0.469972    30A     -0.459802
      31A     -0.443492    32A     -0.436607    33A     -0.432032

  @DF-RHF Final Energy:  -349.27397687072676

   => Energetics <=

    Nuclear Repulsion Energy =            384.5869507081487768
    One-Electron Energy =               -1235.7833275797281658
    Two-Electron Energy =                 501.9224000008525763
    Total Energy =                       -349.2739768707267558

  Dipole Moment: [D]
     X:     0.6542      Y:     1.1488      Z:     0.8695     Total:     1.5823

*** Psi4 exiting successfully. Buy a developer a beer!
