                               Psi4 1.2.1 release

  ==> Input File <==

--------------------------------------------------------------------------
#! You can write anything you want; this is a test

molecule hexanol {
C       -0.018448      0.031654      1.148891
H        0.993409      0.021127      1.566427
H       -0.540257      0.927309      1.500700
O       -0.715222     -1.112266      1.623305
H       -0.724773     -1.057975      2.594129
C        0.021594     -0.012195     -0.372948
H       -1.003570     -0.049698     -0.761749
H        0.497949     -0.948058     -0.687064
C        0.762755      1.193161     -0.949142
H        1.802970      1.189776     -0.601398
H        0.304353      2.112349     -0.563481
C        0.732961      1.251954     -2.479002
H        1.172658      2.207101     -2.792394
H       -0.307244      1.254936     -2.826912
C        1.498124      0.108371     -3.146171
H        2.524723      0.073343     -2.763797
H        1.028791     -0.852740     -2.911141
C        1.534754      0.273836     -4.657919
H        2.082879     -0.555106     -5.116589
H        2.033385      1.206970     -4.938923
H        0.522977      0.284911     -5.075703
}

set basis cc-pVDZ
energy('scf')
--------------------------------------------------------------------------

    Molecular point group: c1

    Geometry (in Angstrom), charge = 0, multiplicity = 1:

       Center              X                  Y                   Z               Mass
    ------------   -----------------  -----------------  -----------------  -----------------
         C           -0.541544649393    -0.186069230168     2.354241763250    12.000000000000
         H            0.470312350607    -0.196596230168     2.771777763250     1.007825032070
         H           -1.063353649393     0.709585769832     2.706050763250     1.007825032070
         O           -1.238318649393    -1.329989230168     2.828655763250    15.994914619560
         H           -1.247869649393    -1.275698230168     3.799479763250     1.007825032070
         C           -0.501502649393    -0.229918230168     0.832402763250    12.000000000000
         H           -1.526666649393    -0.267421230168     0.443601763250     1.007825032070
         H           -0.025147649393    -1.165781230168     0.518286763250     1.007825032070
         C            0.239658350607     0.975437769832     0.256208763250    12.000000000000
         H            1.279873350607     0.972052769832     0.603952763250     1.007825032070
         H           -0.218743649393     1.894625769832     0.641869763250     1.007825032070
         C            0.209864350607     1.034230769832    -1.273651236750    12.000000000000
         H            0.649561350607     1.989377769832    -1.587043236750     1.007825032070
         H           -0.830340649393     1.037212769832    -1.621561236750     1.007825032070
         C            0.975027350607    -0.109352230168    -1.940820236750    12.000000000000
         H            2.001626350607    -0.144380230168    -1.558446236750     1.007825032070
         H            0.505694350607    -1.070463230168    -1.705790236750     1.007825032070
         C            1.011657350607     0.056112769832    -3.452568236750    12.000000000000
         H            1.559782350607    -0.772829230168    -3.911238236750     1.007825032070
         H            1.510288350607     0.989246769832    -3.733572236750     1.007825032070
         H           -0.000119649393     0.067187769832    -3.870352236750     1.007825032070

  Charge       = 0
  Multiplicity = 1
  Basis Set: CC-PVDZ
    Blend: CC-PVDZ
  Basis Set: (CC-PVDZ AUX)
    Blend: CC-PVDZ-JKFIT

    Orbital Energies [Eh]
    ---------------------

    Doubly Occupied:

       1A    -20.545255     2A    -11.271873     3A    -11.221992
       4A    -11.219841     5A    -11.219006     6A    -11.217995
       7A    -11.215640     8A     -1.346874     9A     -1.087915
      10A     -1.031716    11A     -0.954122    12A     -0.860469
      13A     -0.814561    14A     -0.774019    15A     -0.676877
      16A     -0.653561    17A     -0.629984    18A     -0.595040
      19A     -0.587767    20A     -0.560099    21A     -0.544932
      22A     -0.522157    23A     -0.498770    24A     -0.482325
      25A     -0.480079    26A     -0.461350    27A     -0.451029
      28A     -0.442627    29A     -0.432468

  @DF-RHF Final Energy:  -310.23853322516328

   => Energetics <=

    Nuclear Repulsion Energy =            313.2545335634021626
    One-Electron Energy =               -1041.3853428093557341
    Two-Electron Energy =                 417.8922760207902343
    Total Energy =                       -310.2385332251632803

  Dipole Moment: [D]
     X:     0.6965      Y:     1.1831      Z:     0.8830     Total:     1.6323

*** Psi4 exiting successfully. Buy a developer a beer!
