                               Psi4 1.2.1 release

  ==> Input File <==

--------------------------------------------------------------------------
#! Title line

molecule methanol {
H        0.010646      0.018443      0.000720
C        0.006559      0.011360      1.093219
H        1.036175      0.003642      1.459213
H       -0.514932      0.899176      1.459215
O       -0.664521     -1.150984      1.543675
H       -0.652116     -1.129499      2.515708
}

set basis cc-pVDZ
energy('scf')
--------------------------------------------------------------------------

    Molecular point group: c1

    Geometry (in Angstrom), charge = 0, multiplicity = 1:

       Center              X                  Y                   Z               Mass
    ------------   -----------------  -----------------  -----------------  -----------------
         H            0.343854795421     0.595577651192    -1.350890300770     1.007825032070
         C            0.339767795421     0.588494651192    -0.258391300770    12.000000000000
         H            1.369383795421     0.580776651192     0.107602699230     1.007825032070
         H           -0.181723204579     1.476310651192     0.107604699230     1.007825032070
         O           -0.331312204579    -0.573849348808     0.192064699230    15.994914619560
         H           -0.318907204579    -0.552364348808     1.164097699230     1.007825032070

  Charge       = 0
  Multiplicity = 1
  Basis Set: CC-PVDZ
    Blend: CC-PVDZ
  Basis Set: (CC-PVDZ AUX)
    Blend: CC-PVDZ-JKFIT

    Orbital Energies [Eh]
    ---------------------

    Doubly Occupied:

       1A    -20.548072     2A    -11.274240     3A     -1.347868
       4A     -0.918324     5A     -0.678535     6A     -0.617356
       7A     -0.587550     8A     -0.493936     9A     -0.440326

  @DF-RHF Final Energy:  -115.04800861868374

   => Energetics <=

    Nuclear Repulsion Energy =             40.3674489553481308
    One-Electron Energy =                -237.0184535171022162
    Two-Electron Energy =                  81.6029959430703542
    Total Energy =                       -115.0480086186837383

  Dipole Moment: [D]
     X:     0.7462      Y:     1.2926      Z:     1.0449     Total:     1.8220

*** Psi4 exiting successfully. Buy a developer a beer!
