                               Psi4 1.2.1 release

  ==> Input File <==

--------------------------------------------------------------------------
#! You can write anything you want; this is a test

molecule nonanol {
C       -0.069636      0.033250      1.193509
H        0.934197      0.035805      1.630106
H       -0.610131      0.921216      1.536490
O       -0.759688     -1.120698      1.653251
H       -0.788326     -1.067978      2.623787
C       -0.000182     -0.007810     -0.327436
H       -1.017246     -0.058302     -0.735522
H        0.494068     -0.937076     -0.632808
C        0.735563      1.208436     -0.887678
H        1.769911      1.217533     -0.522980
H        0.258511      2.119632     -0.505445
C        0.729266      1.275838     -2.418602
H        1.138542      2.250268     -2.706946
H       -0.304333      1.245238     -2.783772
C        1.545769      0.160987     -3.078009
H        2.579520      0.190640     -2.713232
H        1.134793     -0.812270     -2.787273
C        1.538238      0.224534     -4.610081
H        1.992073     -0.701661     -4.980469
H        0.503512      0.238014     -4.973094
C        2.302766      1.425584     -5.173480
H        3.336419      1.412356     -4.807323
H        1.849249      2.354143     -4.809922
C        2.301263      1.479347     -6.703798
H        2.750876      2.429422     -7.016686
H        1.270467      1.479081     -7.076761
C        3.076680      0.344397     -7.354817
H        4.101301      0.298114     -6.972703
H        3.125984      0.496990     -8.437832
H        2.597050     -0.622851     -7.179834
}

set basis cc-pVDZ
energy('scf')
--------------------------------------------------------------------------

    Molecular point group: c1

    Geometry (in Angstrom), charge = 0, multiplicity = 1:

       Center              X                  Y                   Z               Mass
    ------------   -----------------  -----------------  -----------------  -----------------
         C           -1.187170663118    -0.441218616971     3.900613605010    12.000000000000
         H           -0.183337663118    -0.438663616971     4.337210605010     1.007825032070
         H           -1.727665663118     0.446747383029     4.243594605010     1.007825032070
         O           -1.877222663118    -1.595166616971     4.360355605010    15.994914619560
         H           -1.905860663118    -1.542446616971     5.330891605010     1.007825032070
         C           -1.117716663118    -0.482278616971     2.379668605010    12.000000000000
         H           -2.134780663118    -0.532770616971     1.971582605010     1.007825032070
         H           -0.623466663118    -1.411544616971     2.074296605010     1.007825032070
         C           -0.381971663118     0.733967383029     1.819426605010    12.000000000000
         H            0.652376336882     0.743064383029     2.184124605010     1.007825032070
         H           -0.859023663118     1.645163383029     2.201659605010     1.007825032070
         C           -0.388268663118     0.801369383029     0.288502605010    12.000000000000
         H            0.021007336882     1.775799383029     0.000158605010     1.007825032070
         H           -1.421867663118     0.770769383029    -0.076667394990     1.007825032070
         C            0.428234336882    -0.313481616971    -0.370904394990    12.000000000000
         H            1.461985336882    -0.283828616971    -0.006127394990     1.007825032070
         H            0.017258336882    -1.286738616971    -0.080168394990     1.007825032070
         C            0.420703336882    -0.249934616971    -1.902976394990    12.000000000000
         H            0.874538336882    -1.176129616971    -2.273364394990     1.007825032070
         H           -0.614022663118    -0.236454616971    -2.265989394990     1.007825032070
         C            1.185231336882     0.951115383029    -2.466375394990    12.000000000000
         H            2.218884336882     0.937887383029    -2.100218394990     1.007825032070
         H            0.731714336882     1.879674383029    -2.102817394990     1.007825032070
         C            1.183728336882     1.004878383029    -3.996693394990    12.000000000000
         H            1.633341336882     1.954953383029    -4.309581394990     1.007825032070
         H            0.152932336882     1.004612383029    -4.369656394990     1.007825032070
         C            1.959145336882    -0.130071616971    -4.647712394990    12.000000000000
         H            2.983766336882    -0.176354616971    -4.265598394990     1.007825032070
         H            2.008449336882     0.022521383029    -5.730727394990     1.007825032070
         H            1.479515336882    -1.097319616971    -4.472729394990     1.007825032070

  Charge       = 0
  Multiplicity = 1
  Basis Set: CC-PVDZ
    Blend: CC-PVDZ
  Basis Set: (CC-PVDZ AUX)
    Blend: CC-PVDZ-JKFIT

    Orbital Energies [Eh]
    ---------------------

    Doubly Occupied:

       1A    -20.544982     2A    -11.271507     3A    -11.221753
       4A    -11.218704     5A    -11.218457     6A    -11.217404
       7A    -11.217347     8A    -11.216809     9A    -11.216235
      10A    -11.214434    11A     -1.346588    12A     -1.095470
      13A     -1.067998    14A     -1.022709    15A     -0.966169
      16A     -0.910187    17A     -0.851853    18A     -0.814747
      19A     -0.782570    20A     -0.761945    21A     -0.676539
      22A     -0.652942    23A     -0.628604    24A     -0.618326
      25A     -0.614735    26A     -0.587602    27A     -0.578653
      28A     -0.555433    29A     -0.549026    30A     -0.532052
      31A     -0.513933    32A     -0.506807    33A     -0.488047
      34A     -0.480845    35A     -0.468361    36A     -0.464385
      37A     -0.457474    38A     -0.455460    39A     -0.435394
      40A     -0.432319    41A     -0.428715

  @DF-RHF Final Energy:  -427.34651800828152

   => Energetics <=

    Nuclear Repulsion Energy =            535.3371713222686594
    One-Electron Energy =               -1640.7603171991959243
    Two-Electron Energy =                 678.0766278686456872
    Total Energy =                       -427.3465180082815777

  Dipole Moment: [D]
     X:     0.6327      Y:     1.2455      Z:     0.8455     Total:     1.6329

*** Psi4 exiting successfully. Buy a developer a beer!
