                               Psi4 1.2.1 release

  ==> Input File <==

--------------------------------------------------------------------------
#! You can write anything you want; this is a test

molecule octanol {
C       -0.044224     -0.006369      1.165946
H        0.962901     -0.018101      1.594742
H       -0.576718      0.878028      1.530013
O       -0.737712     -1.164834      1.608850
H       -0.758642     -1.130564      2.580409
C        0.013399     -0.018669     -0.355994
H       -1.007030     -0.055348     -0.757098
H        0.499698     -0.944789     -0.682939
C        0.752161      1.203746     -0.898550
H        1.789205      1.199932     -0.541498
H        0.283350      2.110280     -0.495607
C        0.734943      1.300048     -2.427766
H        1.148693      2.277025     -2.701424
H       -0.301452      1.282709     -2.785818
C        1.539801      0.193273     -3.114320
H        2.576329      0.211152     -2.756675
H        1.126671     -0.783835     -2.840274
C        1.522109      0.289121     -4.643611
H        1.992805     -0.616496     -5.046514
H        0.484976      0.290277     -5.000551
C        2.258386      1.514391     -5.186895
H        3.279676      1.542345     -4.790034
H        1.757895      2.434127     -4.866683
C        2.314855      1.497731     -6.707052
H        2.844823      0.611618     -7.070749
H        2.841559      2.383282     -7.076311
H        1.308016      1.497144     -7.136742
}

set basis cc-pVDZ
energy('scf')
--------------------------------------------------------------------------

    Molecular point group: c1

    Geometry (in Angstrom), charge = 0, multiplicity = 1:

       Center              X                  Y                   Z               Mass
    ------------   -----------------  -----------------  -----------------  -----------------
         C           -0.948731326065    -0.515988132730     3.390633749060    12.000000000000
         H            0.058393673935    -0.527720132730     3.819429749060     1.007825032070
         H           -1.481225326065     0.368408867270     3.754700749060     1.007825032070
         O           -1.642219326065    -1.674453132730     3.833537749060    15.994914619560
         H           -1.663149326065    -1.640183132730     4.805096749060     1.007825032070
         C           -0.891108326065    -0.528288132730     1.868693749060    12.000000000000
         H           -1.911537326065    -0.564967132730     1.467589749060     1.007825032070
         H           -0.404809326065    -1.454408132730     1.541748749060     1.007825032070
         C           -0.152346326065     0.694126867270     1.326137749060    12.000000000000
         H            0.884697673935     0.690312867270     1.683189749060     1.007825032070
         H           -0.621157326065     1.600660867270     1.729080749060     1.007825032070
         C           -0.169564326065     0.790428867270    -0.203078250940    12.000000000000
         H            0.244185673935     1.767405867270    -0.476736250940     1.007825032070
         H           -1.205959326065     0.773089867270    -0.561130250940     1.007825032070
         C            0.635293673935    -0.316346132730    -0.889632250940    12.000000000000
         H            1.671821673935    -0.298467132730    -0.531987250940     1.007825032070
         H            0.222163673935    -1.293454132730    -0.615586250940     1.007825032070
         C            0.617601673935    -0.220498132730    -2.418923250940    12.000000000000
         H            1.088297673935    -1.126115132730    -2.821826250940     1.007825032070
         H           -0.419531326065    -0.219342132730    -2.775863250940     1.007825032070
         C            1.353878673935     1.004771867270    -2.962207250940    12.000000000000
         H            2.375168673935     1.032725867270    -2.565346250940     1.007825032070
         H            0.853387673935     1.924507867270    -2.641995250940     1.007825032070
         C            1.410347673935     0.988111867270    -4.482364250940    12.000000000000
         H            1.940315673935     0.101998867270    -4.846061250940     1.007825032070
         H            1.937051673935     1.873662867270    -4.851623250940     1.007825032070
         H            0.403508673935     0.987524867270    -4.912054250940     1.007825032070

  Charge       = 0
  Multiplicity = 1
  Basis Set: CC-PVDZ
    Blend: CC-PVDZ
  Basis Set: (CC-PVDZ AUX)
    Blend: CC-PVDZ-JKFIT

    Orbital Energies [Eh]
    ---------------------

    Doubly Occupied:

       1A    -20.545040     2A    -11.271607     3A    -11.221904
       4A    -11.218979     5A    -11.218243     6A    -11.217476
       7A    -11.217354     8A    -11.216759     9A    -11.215085
      10A     -1.346643    11A     -1.093891    12A     -1.059836
      13A     -1.005611    14A     -0.944684    15A     -0.867234
      16A     -0.828062    17A     -0.793138    18A     -0.765459
      19A     -0.676693    20A     -0.652881    21A     -0.631063
      22A     -0.619413    23A     -0.600326    24A     -0.574292
      25A     -0.567811    26A     -0.554705    27A     -0.530794
      28A     -0.523215    29A     -0.498261    30A     -0.488956
      31A     -0.478995    32A     -0.468316    33A     -0.462935
      34A     -0.457493    35A     -0.437304    36A     -0.435974
      37A     -0.430927

  @DF-RHF Final Energy:  -388.31108645547431

   => Energetics <=

    Nuclear Repulsion Energy =            456.9935248829509646
    One-Electron Energy =               -1432.3344550246265499
    Two-Electron Energy =                 587.0298436862012750
    Total Energy =                       -388.3110864554743102

  Dipole Moment: [D]
     X:     0.6771      Y:     1.2101      Z:     0.9091     Total:     1.6581

*** Psi4 exiting successfully. Buy a developer a beer!
