                               Psi4 1.2.1 release

  ==> Input File <==

--------------------------------------------------------------------------
#! You can write anything you want; this is a test

molecule pentanol {
C       -0.017615      0.037150      1.148944
H        0.994137      0.034366      1.566857
H       -0.544392      0.931842      1.495772
O       -0.708307     -1.107987      1.629267
H       -0.718496     -1.048541      2.599783
C        0.023165     -0.014618     -0.372582
H       -1.001662     -0.059972     -0.761486
H        0.504964     -0.949306     -0.682221
C        0.757605      1.191787     -0.955240
H        1.796582      1.198054     -0.603757
H        0.291539      2.110924     -0.578898
C        0.733273      1.236013     -2.484491
H        1.178377      2.183446     -2.811231
H       -0.303084      1.233312     -2.841727
C        1.496763      0.094050     -3.137245
H        2.528624      0.052879     -2.774481
H        1.524822      0.233598     -4.222745
H        1.021199     -0.871139     -2.940451
}

set basis cc-pVDZ
energy('scf')
--------------------------------------------------------------------------

    Molecular point group: c1

    Geometry (in Angstrom), charge = 0, multiplicity = 1:

       Center              X                  Y                   Z               Mass
    ------------   -----------------  -----------------  -----------------  -----------------
         C           -0.379959531658    -0.166047213454     1.786938806378    12.000000000000
         H            0.631792468342    -0.168831213454     2.204851806378     1.007825032070
         H           -0.906736531658     0.728644786546     2.133766806378     1.007825032070
         O           -1.070651531658    -1.311184213454     2.267261806378    15.994914619560
         H           -1.080840531658    -1.251738213454     3.237777806378     1.007825032070
         C           -0.339179531658    -0.217815213454     0.265412806378    12.000000000000
         H           -1.364006531658    -0.263169213454    -0.123491193622     1.007825032070
         H            0.142619468342    -1.152503213454    -0.044226193622     1.007825032070
         C            0.395260468342     0.988589786546    -0.317245193622    12.000000000000
         H            1.434237468342     0.994856786546     0.034237806378     1.007825032070
         H           -0.070805531658     1.907726786546     0.059096806378     1.007825032070
         C            0.370928468342     1.032815786546    -1.846496193622    12.000000000000
         H            0.816032468342     1.980248786546    -2.173236193622     1.007825032070
         H           -0.665428531658     1.030114786546    -2.203732193622     1.007825032070
         C            1.134418468342    -0.109147213454    -2.499250193622    12.000000000000
         H            2.166279468342    -0.150318213454    -2.136486193622     1.007825032070
         H            1.162477468342     0.030400786546    -3.584750193622     1.007825032070
         H            0.658854468342    -1.074336213454    -2.302456193622     1.007825032070

  Charge       = 0
  Multiplicity = 1
  Basis Set: CC-PVDZ
    Blend: CC-PVDZ
  Basis Set: (CC-PVDZ AUX)
    Blend: CC-PVDZ-JKFIT

    Orbital Energies [Eh]
    ---------------------

    Doubly Occupied:

       1A    -20.545453     2A    -11.272198     3A    -11.222498
       4A    -11.221442     5A    -11.218439     6A    -11.216141
       7A     -1.347086     8A     -1.081936     9A     -1.006585
      10A     -0.910736    11A     -0.826782    12A     -0.777632
      13A     -0.676707    14A     -0.654682    15A     -0.613735
      16A     -0.605594    17A     -0.568852    18A     -0.546239
      19A     -0.525709    20A     -0.499149    21A     -0.488244
      22A     -0.464628    23A     -0.456664    24A     -0.450635
      25A     -0.432813

  @DF-RHF Final Energy:  -271.20138119895074

   => Energetics <=

    Nuclear Repulsion Energy =            248.1444825084546437
    One-Electron Energy =                -859.4305557898035204
    Two-Electron Energy =                 340.0846920823981350
    Total Energy =                       -271.2013811989507417

  Dipole Moment: [D]
     X:     0.6591      Y:     1.2541      Z:     0.8435     Total:     1.6489

*** Psi4 exiting successfully. Buy a developer a beer!
