                               Psi4 1.2.1 release

  ==> Input File <==

--------------------------------------------------------------------------
#! Title line

molecule propanol {
C        0.008400      0.011665      1.102846
H        1.026360     -0.011077      1.504809
H       -0.513967      0.885511      1.505163
O       -0.673050     -1.159226      1.531226
H       -0.668654     -1.152057      2.503580
C        0.025665      0.041926     -0.417823
H       -1.002564      0.015612     -0.798121
H        0.510455     -0.865082     -0.798468
C        0.740731      1.270609     -0.950155
H        1.781895      1.295331     -0.612980
H        0.248154      2.188086     -0.612628
H        0.738230      1.266744     -2.044615
}

set basis cc-pVDZ
energy('scf')
--------------------------------------------------------------------------

    Molecular point group: c1

    Geometry (in Angstrom), charge = 0, multiplicity = 1:

       Center              X                  Y                   Z               Mass
    ------------   -----------------  -----------------  -----------------  -----------------
         C           -0.002733861809    -0.004987332861     0.737162439170    12.000000000000
         H            1.015226138191    -0.027729332861     1.139125439170     1.007825032070
         H           -0.525100861809     0.868858667139     1.139479439170     1.007825032070
         O           -0.684183861809    -1.175878332861     1.165542439170    15.994914619560
         H           -0.679787861809    -1.168709332861     2.137896439170     1.007825032070
         C            0.014531138191     0.025273667139    -0.783506560830    12.000000000000
         H           -1.013697861809    -0.001040332861    -1.163804560830     1.007825032070
         H            0.499321138191    -0.881734332861    -1.164151560830     1.007825032070
         C            0.729597138191     1.253956667139    -1.315838560830    12.000000000000
         H            1.770761138191     1.278678667139    -0.978663560830     1.007825032070
         H            0.237020138191     2.171433667139    -0.978311560830     1.007825032070
         H            0.727096138191     1.250091667139    -2.410298560830     1.007825032070

  Charge       = 0
  Multiplicity = 1
  Basis Set: CC-PVDZ
    Blend: CC-PVDZ
  Basis Set: (CC-PVDZ AUX)
    Blend: CC-PVDZ-JKFIT

    Orbital Energies [Eh]
    ---------------------

    Doubly Occupied:

       1A    -20.545892     2A    -11.272809     3A    -11.221694
       4A    -11.220751     5A     -1.347664     6A     -1.051559
       7A     -0.911519     8A     -0.801834     9A     -0.677765
      10A     -0.652377    11A     -0.597393    12A     -0.572149
      13A     -0.523420    14A     -0.502006    15A     -0.480958
      16A     -0.466914    17A     -0.433669

  @DF-RHF Final Energy:  -193.12836249728798

   => Energetics <=

    Nuclear Repulsion Energy =            130.5146462048466844
    One-Electron Energy =                -520.7252644350917308
    Two-Electron Energy =                 197.0822557329570373
    Total Energy =                       -193.1283624972879807

  Dipole Moment: [D]
     X:     0.6734      Y:     1.1565      Z:     0.9343     Total:     1.6321

*** Psi4 exiting successfully. Buy a developer a beer!
