                               Psi4 1.2.1 release

  ==> Input File <==

--------------------------------------------------------------------------
#! SAPT0 cc-pVDZ computation of the ethene-ethyne interaction energy, using the cc-pVDZ-JKFIT RI basis for SCF
#! and cc-pVDZ-RI for SAPT.  Monomer geometries are specified using Cartesian coordinates.

memory 300 mb

Eref = [ 85.189064196429101,  -0.00359915058,  0.00362911158,  #TEST
         -0.00083137117,      -0.00150542374, -0.00230683391 ] #TEST

molecule ethene_ethyne {
     0 1
     C     0.000000    -0.667578    -2.124659
     C     0.000000     0.667578    -2.124659
     H     0.923621    -1.232253    -2.126185
     H    -0.923621    -1.232253    -2.126185
     H    -0.923621     1.232253    -2.126185
     H     0.923621     1.232253    -2.126185
     --
     0 1
     C     0.000000     0.000000     2.900503
     C     0.000000     0.000000     1.693240
     H     0.000000     0.000000     0.627352
     H     0.000000     0.000000     3.963929
     units angstrom
     no_reorient
     symmetry c1
}

set globals {
    basis         cc-pvdz
    guess         sad
    scf_type      df
    sad_print     2
    d_convergence 11
    puream        true
    print         1
}

energy('sapt0')
--------------------------------------------------------------------------

  //              Dimer HF             //
    Molecular point group: c1
  Charge       = 0
  Multiplicity = 1
  Basis Set: CC-PVDZ
    Blend: CC-PVDZ
  Basis Set: (CC-PVDZ AUX)
    Blend: CC-PVDZ-JKFIT
  UHF Computation for Unique Atom 0 which is Atom 0:    Molecular point group: c1
  Basis Set: CC-PVDZ
    Blend: BASIS
  Basis Set: SAD-FIT
    Blend: BASIS
  @Atomic UHF Final Energy for atom C:   -37.68636389819795
  Basis Set: CC-PVDZ
    Blend: BASIS
  Basis Set: SAD-FIT
    Blend: BASIS
  @Atomic UHF Final Energy for atom H:    -0.49927840341958
  @DF-RHF Final Energy:  -154.86653168003005
    Total Energy =                       -154.8665316800300502
  //            Monomer A HF           //
  Basis Set: CC-PVDZ
    Blend: CC-PVDZ
  Basis Set: (CC-PVDZ AUX)
    Blend: CC-PVDZ-JKFIT
  Basis Set: CC-PVDZ
    Blend: BASIS
  Basis Set: SAD-FIT
  @Atomic UHF Final Energy for atom C:   -37.68636389819795
  @Atomic UHF Final Energy for atom H:    -0.49927840341958
  @Atomic UHF Final Energy for atom C:     0.00000000000000
  @Atomic UHF Final Energy for atom H:     0.00000000000000
  @DF-RHF Final Energy:   -78.04026719691166
    Total Energy =                        -78.0402671969116568
  //            Monomer B HF           //
    Blend: CC-PVDZ
  Basis Set: (CC-PVDZ AUX)
    Blend: CC-PVDZ-JKFIT
  Basis Set: CC-PVDZ
    Blend: BASIS
  Basis Set: SAD-FIT
    Blend: BASIS
  @Atomic UHF Final Energy for atom C:     0.00000000000000
  Basis Set: CC-PVDZ
    Blend: BASIS
  Basis Set: SAD-FIT
    Blend: BASIS
  @Atomic UHF Final Energy for atom H:     0.00000000000000
  UHF Computation for Unique Atom 2 which is Atom 6:    Molecular point group: c1
  Basis Set: CC-PVDZ
    Blend: BASIS
    Molecular point group: c1
  Basis Set: SAD-FIT
    Blend: BASIS
  @Atomic UHF Final Energy for atom C:   -37.68636389819797
  UHF Computation for Unique Atom 3 which is Atom 8:    Molecular point group: c1
  Basis Set: CC-PVDZ
    Blend: BASIS
    Molecular point group: c1
    Geometry (in Bohr), charge = 0, multiplicity = 2:

       Center              X                  Y                   Z               Mass
    ------------   -----------------  -----------------  -----------------  -----------------
         H            0.000000000000     0.000000000000     1.178914541639     1.007825032070

  Basis Set: SAD-FIT
    Blend: BASIS
  @Atomic UHF Final Energy for atom H:    -0.49927840341958

    Orbital Energies [Eh]
    ---------------------

    Doubly Occupied:

       1A    -11.249444     2A    -11.245853     3A     -1.026223
       4A     -0.763164     5A     -0.674391     6A     -0.405268
       7A     -0.405250

  @DF-RHF Final Energy:   -76.82546307295257

   => Energetics <=

    Nuclear Repulsion Energy =             24.6979461027507696
    One-Electron Energy =                -151.5076339638436025
    Two-Electron Energy =                  49.9842247881402599
    Total Energy =                        -76.8254630729525729

  Dipole Moment: [D]
     X:     0.0000      Y:     0.0000      Z:     0.0023     Total:     0.0023

    SAPT Results
  --------------------------------------------------------------------------------------------------------
    Electrostatics                 -3.59915058 [mEh]      -2.25850118 [kcal/mol]      -9.44956984 [kJ/mol]
      Elst10,r                     -3.59915058 [mEh]      -2.25850118 [kcal/mol]      -9.44956984 [kJ/mol]

    Exchange                        3.62911156 [mEh]       2.27730198 [kcal/mol]       9.52823241 [kJ/mol]
      Exch10                        3.62911156 [mEh]       2.27730198 [kcal/mol]       9.52823241 [kJ/mol]
      Exch10(S^2)                   3.61554081 [mEh]       2.26878621 [kcal/mol]       9.49260240 [kJ/mol]

    Induction                      -0.83137115 [mEh]      -0.52169330 [kcal/mol]      -2.18276496 [kJ/mol]
      Ind20,r                      -1.17961920 [mEh]      -0.74022226 [kcal/mol]      -3.09709022 [kJ/mol]
      Exch-Ind20,r                  0.84188606 [mEh]       0.52829150 [kcal/mol]       2.21037186 [kJ/mol]
      delta HF,r (2)               -0.49363801 [mEh]      -0.30976254 [kcal/mol]      -1.29604660 [kJ/mol]

    Dispersion                     -1.50542374 [mEh]      -0.94466770 [kcal/mol]      -3.95249003 [kJ/mol]
      Disp20                       -1.73771525 [mEh]      -1.09043283 [kcal/mol]      -4.56237138 [kJ/mol]
      Exch-Disp20                   0.23229151 [mEh]       0.14576513 [kcal/mol]       0.60988135 [kJ/mol]
      Disp20 (SS)                  -0.86885762 [mEh]      -0.54521641 [kcal/mol]      -2.28118569 [kJ/mol]
      Disp20 (OS)                  -0.86885762 [mEh]      -0.54521641 [kcal/mol]      -2.28118569 [kJ/mol]
      Exch-Disp20 (SS)              0.13673407 [mEh]       0.08580193 [kcal/mol]       0.35899531 [kJ/mol]
      Exch-Disp20 (OS)              0.09555743 [mEh]       0.05996320 [kcal/mol]       0.25088603 [kJ/mol]

  Total HF                         -0.80141017 [mEh]      -0.50289249 [kcal/mol]      -2.10410239 [kJ/mol]
  Total SAPT0                      -2.30683391 [mEh]      -1.44756019 [kcal/mol]      -6.05659242 [kJ/mol]

  Special recipe for scaled SAPT0 (see Manual):
    Electrostatics sSAPT0          -3.59915058 [mEh]      -2.25850118 [kcal/mol]      -9.44956984 [kJ/mol]
    Exchange sSAPT0                 3.62911156 [mEh]       2.27730198 [kcal/mol]       9.52823241 [kJ/mol]
    Induction sSAPT0               -0.82185559 [mEh]      -0.51572219 [kcal/mol]      -2.15778186 [kJ/mol]
    Dispersion sSAPT0              -1.50279823 [mEh]      -0.94302016 [kcal/mol]      -3.94559675 [kJ/mol]
  Total sSAPT0                     -2.29469283 [mEh]      -1.43994155 [kcal/mol]      -6.02471604 [kJ/mol]
  --------------------------------------------------------------------------------------------------------

*** Psi4 exiting successfully. Buy a developer a beer!
